VARIABLES = x, y
ZONE I=40, J=40
0.000000  0.000000
0.051282  -0.080426
0.102564  -0.160331
0.153846  -0.239197
0.205128  -0.316513
0.256410  -0.391779
0.307692  -0.464506
0.358974  -0.534224
0.410256  -0.600481
0.461538  -0.662848
0.512821  -0.720919
0.564103  -0.774321
0.615385  -0.822705
0.666667  -0.865760
0.717949  -0.903205
0.769231  -0.934799
0.820513  -0.960336
0.871795  -0.979652
0.923077  -0.992620
0.974359  -0.999157
1.025641  -0.999222
1.076923  -0.992812
1.128205  -0.979970
1.179487  -0.960779
1.230769  -0.935363
1.282051  -0.903888
1.333333  -0.866556
1.384615  -0.823610
1.435897  -0.775328
1.487179  -0.722022
1.538462  -0.664039
1.589744  -0.601754
1.641026  -0.535570
1.692308  -0.465916
1.743590  -0.393244
1.794872  -0.318023
1.846154  -0.240743
1.897436  -0.161903
1.948718  -0.082013
2.000000  0.000000
0.000000  0.051282
0.051282  0.002909
0.102564  -0.054987
0.153846  -0.115565
0.205128  -0.176158
0.256410  -0.235446
0.307692  -0.292627
0.358974  -0.347141
0.410256  -0.398563
0.461538  -0.446556
0.512821  -0.490850
0.564103  -0.531223
0.615385  -0.567494
0.666667  -0.599515
0.717949  -0.627167
0.769231  -0.650353
0.820513  -0.668997
0.871795  -0.683040
0.923077  -0.692441
0.974359  -0.697170
1.025641  -0.697214
1.076923  -0.692574
1.128205  -0.683262
1.179487  -0.669306
1.230769  -0.650748
1.282051  -0.627647
1.333333  -0.600078
1.384615  -0.568137
1.435897  -0.531944
1.487179  -0.491645
1.538462  -0.447420
1.589744  -0.399489
1.641026  -0.348121
1.692308  -0.293651
1.743590  -0.236498
1.794872  -0.177215
1.846154  -0.116582
1.897436  -0.055874
1.948718  0.002379
2.000000  0.051282
0.000000  0.102564
0.051282  0.066563
0.102564  0.023541
0.153846  -0.023432
0.205128  -0.071861
0.256410  -0.120138
0.307692  -0.167222
0.358974  -0.212412
0.410256  -0.255205
0.461538  -0.295232
0.512821  -0.332212
0.564103  -0.365929
0.615385  -0.396214
0.666667  -0.422939
0.717949  -0.446002
0.769231  -0.465327
0.820513  -0.480857
0.871795  -0.492547
0.923077  -0.500368
0.974359  -0.504300
1.025641  -0.504335
1.076923  -0.500473
1.128205  -0.492721
1.179487  -0.481100
1.230769  -0.465638
1.282051  -0.446379
1.333333  -0.423380
1.384615  -0.396717
1.435897  -0.366491
1.487179  -0.332829
1.538462  -0.295898
1.589744  -0.255912
1.641026  -0.213149
1.692308  -0.167976
1.743590  -0.120886
1.794872  -0.072571
1.846154  -0.024052
1.897436  0.023086
1.948718  0.066348
2.000000  0.102564
0.000000  0.153846
0.051282  0.124224
0.102564  0.090098
0.153846  0.052635
0.205128  0.013349
0.256410  -0.026455
0.307692  -0.065779
0.358974  -0.103889
0.410256  -0.140242
0.461538  -0.174431
0.512821  -0.206148
0.564103  -0.235157
0.615385  -0.261277
0.666667  -0.284369
0.717949  -0.304326
0.769231  -0.321067
0.820513  -0.334529
0.871795  -0.344669
0.923077  -0.351455
0.974359  -0.354867
1.025641  -0.354895
1.076923  -0.351540
1.128205  -0.344811
1.179487  -0.334726
1.230769  -0.321318
1.282051  -0.304630
1.333333  -0.284724
1.384615  -0.261679
1.435897  -0.235603
1.487179  -0.206633
1.538462  -0.174948
1.589744  -0.140783
1.641026  -0.104441
1.692308  -0.066326
1.743590  -0.026976
1.794872  0.012883
1.846154  0.052260
1.897436  0.089850
1.948718  0.124117
2.000000  0.153846
0.000000  0.205128
0.051282  0.179636
0.102564  0.151185
0.153846  0.120264
0.205128  0.087720
0.256410  0.054456
0.307692  0.021274
0.358974  -0.011165
0.410256  -0.042339
0.461538  -0.071838
0.512821  -0.099343
0.564103  -0.124603
0.615385  -0.147426
0.666667  -0.167657
0.717949  -0.185181
0.769231  -0.199906
0.820513  -0.211764
0.871795  -0.220705
0.923077  -0.226692
0.974359  -0.229702
1.025641  -0.229725
1.076923  -0.226761
1.128205  -0.220820
1.179487  -0.211925
1.230769  -0.200111
1.282051  -0.185427
1.333333  -0.167943
1.384615  -0.147748
1.435897  -0.124957
1.487179  -0.099723
1.538462  -0.072238
1.589744  -0.042750
1.641026  -0.011575
1.692308  0.020879
1.743590  0.054094
1.794872  0.087412
1.846154  0.120029
1.897436  0.151037
1.948718  0.179572
2.000000  0.205128
0.000000  0.256410
0.051282  0.233986
0.102564  0.209515
0.153846  0.183258
0.205128  0.155717
0.256410  0.127494
0.307692  0.099191
0.358974  0.071351
0.410256  0.044435
0.461538  0.018824
0.512821  -0.005170
0.564103  -0.027299
0.615385  -0.047363
0.666667  -0.065202
0.717949  -0.080691
0.769231  -0.093733
0.820513  -0.104252
0.871795  -0.112192
0.923077  -0.117512
0.974359  -0.120189
1.025641  -0.120208
1.076923  -0.117570
1.128205  -0.112287
1.179487  -0.104383
1.230769  -0.093900
1.282051  -0.080891
1.333333  -0.065433
1.384615  -0.047621
1.435897  -0.027580
1.487179  -0.005469
1.538462  0.018515
1.589744  0.044123
1.641026  0.071046
1.692308  0.098905
1.743590  0.127239
1.794872  0.155507
1.846154  0.183103
1.897436  0.209418
1.948718  0.233944
2.000000  0.256410
0.000000  0.307692
0.051282  0.287724
0.102564  0.266269
0.153846  0.243512
0.205128  0.219781
0.256410  0.195489
0.307692  0.171083
0.358974  0.146990
0.410256  0.123600
0.461538  0.101250
0.512821  0.080225
0.564103  0.060763
0.615385  0.043061
0.666667  0.027276
0.717949  0.013538
0.769231  0.001949
0.820513  -0.007414
0.871795  -0.014489
0.923077  -0.019234
0.974359  -0.021621
1.025641  -0.021637
1.076923  -0.019281
1.128205  -0.014567
1.179487  -0.007521
1.230769  0.001813
1.282051  0.013376
1.333333  0.027090
1.384615  0.042854
1.435897  0.060541
1.487179  0.079991
1.538462  0.101010
1.589744  0.123362
1.641026  0.146762
1.692308  0.170872
1.743590  0.195306
1.794872  0.219632
1.846154  0.243404
1.897436  0.266201
1.948718  0.287693
2.000000  0.307692
0.000000  0.358974
0.051282  0.341053
0.102564  0.322014
0.153846  0.302009
0.205128  0.281273
0.256410  0.260109
0.307692  0.238849
0.358974  0.217833
0.410256  0.197378
0.461538  0.177776
0.512821  0.159280
0.564103  0.142108
0.615385  0.126446
0.666667  0.112446
0.717949  0.100236
0.769231  0.089916
0.820513  0.081568
0.871795  0.075252
0.923077  0.071013
0.974359  0.068880
1.025641  0.068867
1.076923  0.070975
1.128205  0.075188
1.179487  0.081480
1.230769  0.089806
1.282051  0.100104
1.333333  0.112296
1.384615  0.126281
1.435897  0.141931
1.487179  0.159096
1.538462  0.177590
1.589744  0.197196
1.641026  0.217660
1.692308  0.238692
1.743590  0.259974
1.794872  0.281165
1.846154  0.301930
1.897436  0.321965
1.948718  0.341030
2.000000  0.358974
0.000000  0.410256
0.051282  0.394085
0.102564  0.377054
0.153846  0.359292
0.205128  0.340985
0.256410  0.322362
0.307692  0.303684
0.358974  0.285216
0.410256  0.267223
0.461538  0.249948
0.512821  0.233614
0.564103  0.218416
0.615385  0.204525
0.666667  0.192083
0.717949  0.181212
0.769231  0.172011
0.820513  0.164558
0.871795  0.158913
0.923077  0.155123
0.974359  0.153215
1.025641  0.153205
1.076923  0.155091
1.128205  0.158861
1.179487  0.164486
1.230769  0.171921
1.282051  0.181106
1.333333  0.191962
1.384615  0.204392
1.435897  0.218275
1.487179  0.233469
1.538462  0.249802
1.589744  0.267081
1.641026  0.285084
1.692308  0.303564
1.743590  0.322260
1.794872  0.340903
1.846154  0.359232
1.897436  0.377016
1.948718  0.394067
2.000000  0.410256
0.000000  0.461538
0.051282  0.446889
0.102564  0.431567
0.153846  0.415685
0.205128  0.399396
0.256410  0.382884
0.307692  0.366355
0.358974  0.350025
0.410256  0.334111
0.461538  0.318819
0.512821  0.304341
0.564103  0.290851
0.615385  0.278500
0.666667  0.267422
0.717949  0.257729
0.769231  0.249514
0.820513  0.242853
0.871795  0.237805
0.923077  0.234413
0.974359  0.232705
1.025641  0.232696
1.076923  0.234387
1.128205  0.237762
1.179487  0.242794
1.230769  0.249441
1.282051  0.257643
1.333333  0.267325
1.384615  0.278394
1.435897  0.290738
1.487179  0.304226
1.538462  0.318704
1.589744  0.334000
1.641026  0.349922
1.692308  0.366262
1.743590  0.382805
1.794872  0.399333
1.846154  0.415639
1.897436  0.431537
1.948718  0.446876
2.000000  0.461538
0.000000  0.512821
0.051282  0.499512
0.102564  0.485669
0.153846  0.471395
0.205128  0.456817
0.256410  0.442087
0.307692  0.427375
0.358974  0.412859
0.410256  0.398717
0.461538  0.385126
0.512821  0.372250
0.564103  0.360241
0.615385  0.349235
0.666667  0.339352
0.717949  0.330696
0.769231  0.323352
0.820513  0.317393
0.871795  0.312874
0.923077  0.309836
0.974359  0.308307
1.025641  0.308300
1.076923  0.309815
1.128205  0.312839
1.179487  0.317345
1.230769  0.323293
1.282051  0.330625
1.333333  0.339273
1.384615  0.349149
1.435897  0.360151
1.487179  0.372158
1.538462  0.385035
1.589744  0.398630
1.641026  0.412777
1.692308  0.427303
1.743590  0.442026
1.794872  0.456768
1.846154  0.471358
1.897436  0.485646
1.948718  0.499501
2.000000  0.512821
0.000000  0.564103
0.051282  0.551985
0.102564  0.539441
0.153846  0.526561
0.205128  0.513457
0.256410  0.500256
0.307692  0.487100
0.358974  0.474137
0.410256  0.461520
0.461538  0.449397
0.512821  0.437910
0.564103  0.427191
0.615385  0.417362
0.666667  0.408529
0.717949  0.400787
0.769231  0.394214
0.820513  0.388878
0.871795  0.384828
0.923077  0.382106
0.974359  0.380735
1.025641  0.380729
1.076923  0.382088
1.128205  0.384800
1.179487  0.388838
1.230769  0.394166
1.282051  0.400730
1.333333  0.408465
1.384615  0.417292
1.435897  0.427119
1.487179  0.437836
1.538462  0.449324
1.589744  0.461451
1.641026  0.474073
1.692308  0.487043
1.743590  0.500207
1.794872  0.513418
1.846154  0.526532
1.897436  0.539422
1.948718  0.551977
2.000000  0.564103
0.000000  0.615385
0.051282  0.604334
0.102564  0.592940
0.153846  0.581284
0.205128  0.569464
0.256410  0.557589
0.307692  0.545781
0.358974  0.534164
0.410256  0.522868
0.461538  0.512021
0.512821  0.501744
0.564103  0.492154
0.615385  0.483357
0.666667  0.475449
0.717949  0.468514
0.769231  0.462624
0.820513  0.457839
0.871795  0.454208
0.923077  0.451765
0.974359  0.450536
1.025641  0.450531
1.076923  0.451751
1.128205  0.454184
1.179487  0.457807
1.230769  0.462584
1.282051  0.468467
1.333333  0.475397
1.384615  0.483301
1.435897  0.492095
1.487179  0.501684
1.538462  0.511962
1.589744  0.522812
1.641026  0.534113
1.692308  0.545735
1.743590  0.557550
1.794872  0.569432
1.846154  0.581261
1.897436  0.592925
1.948718  0.604327
2.000000  0.615385
0.000000  0.666667
0.051282  0.656577
0.102564  0.646209
0.153846  0.635637
0.205128  0.624947
0.256410  0.614235
0.307692  0.603604
0.358974  0.593163
0.410256  0.583021
0.461538  0.573289
0.512821  0.564073
0.564103  0.555474
0.615385  0.547586
0.666667  0.540494
0.717949  0.534273
0.769231  0.528988
0.820513  0.524694
0.871795  0.521434
0.923077  0.519241
0.974359  0.518137
1.025641  0.518133
1.076923  0.519229
1.128205  0.521414
1.179487  0.524667
1.230769  0.528955
1.282051  0.534235
1.333333  0.540451
1.384615  0.547540
1.435897  0.555426
1.487179  0.564024
1.538462  0.573241
1.589744  0.582976
1.641026  0.593121
1.692308  0.603567
1.743590  0.614204
1.794872  0.624922
1.846154  0.635618
1.897436  0.646196
1.948718  0.656571
2.000000  0.666667
0.000000  0.717949
0.051282  0.708728
0.102564  0.699281
0.153846  0.689676
0.205128  0.679990
0.256410  0.670304
0.307692  0.660711
0.358974  0.651303
0.410256  0.642176
0.461538  0.633425
0.512821  0.625143
0.564103  0.617418
0.615385  0.610333
0.666667  0.603963
0.717949  0.598375
0.769231  0.593627
0.820513  0.589769
0.871795  0.586840
0.923077  0.584869
0.974359  0.583877
1.025641  0.583874
1.076923  0.584859
1.128205  0.586824
1.179487  0.589747
1.230769  0.593600
1.282051  0.598343
1.333333  0.603928
1.384615  0.610295
1.435897  0.617379
1.487179  0.625103
1.538462  0.633386
1.589744  0.642139
1.641026  0.651269
1.692308  0.660681
1.743590  0.670279
1.794872  0.679969
1.846154  0.689661
1.897436  0.699271
1.948718  0.708723
2.000000  0.717949
0.000000  0.769231
0.051282  0.760800
0.102564  0.752185
0.153846  0.743447
0.205128  0.734656
0.256410  0.725884
0.307692  0.717210
0.358974  0.708717
0.410256  0.700487
0.461538  0.692604
0.512821  0.685148
0.564103  0.678197
0.615385  0.671824
0.666667  0.666095
0.717949  0.661069
0.769231  0.656799
0.820513  0.653330
0.871795  0.650695
0.923077  0.648923
0.974359  0.648031
1.025641  0.648028
1.076923  0.648915
1.128205  0.650682
1.179487  0.653312
1.230769  0.656777
1.282051  0.661043
1.333333  0.666066
1.384615  0.671793
1.435897  0.678165
1.487179  0.685116
1.538462  0.692572
1.589744  0.700457
1.641026  0.708689
1.692308  0.717186
1.743590  0.725863
1.794872  0.734639
1.846154  0.743435
1.897436  0.752176
1.948718  0.760795
2.000000  0.769231
0.000000  0.820513
0.051282  0.812801
0.102564  0.804940
0.153846  0.796985
0.205128  0.788997
0.256410  0.781042
0.307692  0.773189
0.358974  0.765510
0.410256  0.758078
0.461538  0.750966
0.512821  0.744244
0.564103  0.737981
0.615385  0.732241
0.666667  0.727082
0.717949  0.722557
0.769231  0.718714
0.820513  0.715590
0.871795  0.713219
0.923077  0.711624
0.974359  0.710821
1.025641  0.710819
1.076923  0.711617
1.128205  0.713208
1.179487  0.715576
1.230769  0.718695
1.282051  0.722536
1.333333  0.727058
1.384615  0.732215
1.435897  0.737955
1.487179  0.744218
1.538462  0.750940
1.589744  0.758054
1.641026  0.765487
1.692308  0.773169
1.743590  0.781025
1.794872  0.788983
1.846154  0.796975
1.897436  0.804933
1.948718  0.812798
2.000000  0.820513
0.000000  0.871795
0.051282  0.864741
0.102564  0.857566
0.153846  0.850319
0.205128  0.843056
0.256410  0.835835
0.307692  0.828718
0.358974  0.821767
0.410256  0.815048
0.461538  0.808624
0.512821  0.802557
0.564103  0.796907
0.615385  0.791732
0.666667  0.787082
0.717949  0.783005
0.769231  0.779542
0.820513  0.776728
0.871795  0.774593
0.923077  0.773156
0.974359  0.772433
1.025641  0.772431
1.076923  0.773150
1.128205  0.774584
1.179487  0.776716
1.230769  0.779527
1.282051  0.782987
1.333333  0.787062
1.384615  0.791711
1.435897  0.796886
1.487179  0.802535
1.538462  0.808602
1.589744  0.815028
1.641026  0.821748
1.692308  0.828701
1.743590  0.835821
1.794872  0.843044
1.846154  0.850310
1.897436  0.857560
1.948718  0.864738
2.000000  0.871795
0.000000  0.923077
0.051282  0.916626
0.102564  0.910076
0.153846  0.903473
0.205128  0.896866
0.256410  0.890308
0.307692  0.883853
0.358974  0.877557
0.410256  0.871478
0.461538  0.865670
0.512821  0.860190
0.564103  0.855089
0.615385  0.850419
0.666667  0.846225
0.717949  0.842549
0.769231  0.839428
0.820513  0.836892
0.871795  0.834967
0.923077  0.833672
0.974359  0.833021
1.025641  0.833019
1.076923  0.833667
1.128205  0.834959
1.179487  0.836881
1.230769  0.839415
1.282051  0.842535
1.333333  0.846209
1.384615  0.850402
1.435897  0.855071
1.487179  0.860171
1.538462  0.865652
1.589744  0.871461
1.641026  0.877542
1.692308  0.883839
1.743590  0.890296
1.794872  0.896857
1.846154  0.903466
1.897436  0.910071
1.948718  0.916624
2.000000  0.923077
0.000000  0.974359
0.051282  0.968462
0.102564  0.962485
0.153846  0.956469
0.205128  0.950458
0.256410  0.944501
0.307692  0.938644
0.358974  0.932939
0.410256  0.927435
0.461538  0.922182
0.512821  0.917229
0.564103  0.912622
0.615385  0.908406
0.666667  0.904622
0.717949  0.901306
0.769231  0.898490
0.820513  0.896204
0.871795  0.894468
0.923077  0.893301
0.974359  0.892714
1.025641  0.892713
1.076923  0.893297
1.128205  0.894462
1.179487  0.896195
1.230769  0.898480
1.282051  0.901294
1.333333  0.904608
1.384615  0.908392
1.435897  0.912608
1.487179  0.917214
1.538462  0.922167
1.589744  0.927421
1.641026  0.932926
1.692308  0.938633
1.743590  0.944491
1.794872  0.950450
1.846154  0.956463
1.897436  0.962481
1.948718  0.968460
2.000000  0.974359
0.000000  1.025641
0.051282  1.020254
0.102564  1.014802
0.153846  1.009323
0.205128  1.003856
0.256410  0.998445
0.307692  0.993132
0.358974  0.987961
0.410256  0.982978
0.461538  0.978226
0.512821  0.973748
0.564103  0.969586
0.615385  0.965779
0.666667  0.962364
0.717949  0.959371
0.769231  0.956832
0.820513  0.954770
0.871795  0.953205
0.923077  0.952153
0.974359  0.951624
1.025641  0.951623
1.076923  0.952150
1.128205  0.953200
1.179487  0.954763
1.230769  0.956823
1.282051  0.959361
1.333333  0.962352
1.384615  0.965768
1.435897  0.969574
1.487179  0.973736
1.538462  0.978213
1.589744  0.982966
1.641026  0.987950
1.692308  0.993122
1.743590  0.998437
1.794872  1.003850
1.846154  1.009318
1.897436  1.014799
1.948718  1.020252
2.000000  1.025641
0.000000  1.076923
0.051282  1.072007
0.102564  1.067038
0.153846  1.062051
0.205128  1.057082
0.256410  1.052169
0.307692  1.047350
0.358974  1.042665
0.410256  1.038154
0.461538  1.033856
0.512821  1.029809
0.564103  1.026049
0.615385  1.022612
0.666667  1.019529
0.717949  1.016830
0.769231  1.014540
0.820513  1.012680
0.871795  1.011270
0.923077  1.010321
0.974359  1.009844
1.025641  1.009843
1.076923  1.010319
1.128205  1.011265
1.179487  1.012675
1.230769  1.014533
1.282051  1.016822
1.333333  1.019520
1.384615  1.022602
1.435897  1.026039
1.487179  1.029798
1.538462  1.033846
1.589744  1.038144
1.641026  1.042656
1.692308  1.047342
1.743590  1.052162
1.794872  1.057077
1.846154  1.062047
1.897436  1.067035
1.948718  1.072006
2.000000  1.076923
0.000000  1.128205
0.051282  1.123724
0.102564  1.119201
0.153846  1.114667
0.205128  1.110154
0.256410  1.105697
0.307692  1.101330
0.358974  1.097088
0.410256  1.093007
0.461538  1.089121
0.512821  1.085465
0.564103  1.082070
0.615385  1.078968
0.666667  1.076188
0.717949  1.073753
0.769231  1.071689
0.820513  1.070013
0.871795  1.068741
0.923077  1.067887
0.974359  1.067457
1.025641  1.067457
1.076923  1.067885
1.128205  1.068738
1.179487  1.070008
1.230769  1.071683
1.282051  1.073746
1.333333  1.076180
1.384615  1.078960
1.435897  1.082062
1.487179  1.085456
1.538462  1.089112
1.589744  1.092999
1.641026  1.097080
1.692308  1.101323
1.743590  1.105691
1.794872  1.110150
1.846154  1.114664
1.897436  1.119199
1.948718  1.123723
2.000000  1.128205
0.000000  1.179487
0.051282  1.175410
0.102564  1.171299
0.153846  1.167182
0.205128  1.163089
0.256410  1.159050
0.307692  1.155097
0.358974  1.151260
0.410256  1.147572
0.461538  1.144062
0.512821  1.140762
0.564103  1.137700
0.615385  1.134903
0.666667  1.132397
0.717949  1.130203
0.769231  1.128344
0.820513  1.126834
0.871795  1.125690
0.923077  1.124921
0.974359  1.124534
1.025641  1.124533
1.076923  1.124919
1.128205  1.125687
1.179487  1.126830
1.230769  1.128339
1.282051  1.130198
1.333333  1.132390
1.384615  1.134896
1.435897  1.137693
1.487179  1.140755
1.538462  1.144055
1.589744  1.147565
1.641026  1.151254
1.692308  1.155091
1.743590  1.159046
1.794872  1.163085
1.846154  1.167179
1.897436  1.171297
1.948718  1.175409
2.000000  1.179487
0.000000  1.230769
0.051282  1.227067
0.102564  1.223338
0.153846  1.219607
0.205128  1.215901
0.256410  1.212248
0.307692  1.208675
0.358974  1.205210
0.410256  1.201881
0.461538  1.198716
0.512821  1.195741
0.564103  1.192983
0.615385  1.190464
0.666667  1.188208
0.717949  1.186235
0.769231  1.184562
0.820513  1.183204
0.871795  1.182175
0.923077  1.181483
0.974359  1.181136
1.025641  1.181135
1.076923  1.181482
1.128205  1.182173
1.179487  1.183201
1.230769  1.184558
1.282051  1.186230
1.333333  1.188203
1.384615  1.190459
1.435897  1.192977
1.487179  1.195735
1.538462  1.198710
1.589744  1.201875
1.641026  1.205205
1.692308  1.208670
1.743590  1.212244
1.794872  1.215898
1.846154  1.219605
1.897436  1.223336
1.948718  1.227066
2.000000  1.230769
0.000000  1.282051
0.051282  1.278698
0.102564  1.275324
0.153846  1.271951
0.205128  1.268604
0.256410  1.265307
0.307692  1.262084
0.358974  1.258961
0.410256  1.255963
0.461538  1.253115
0.512821  1.250439
0.564103  1.247958
0.615385  1.245695
0.666667  1.243668
0.717949  1.241895
0.769231  1.240393
0.820513  1.239174
0.871795  1.238250
0.923077  1.237630
0.974359  1.237318
1.025641  1.237317
1.076923  1.237628
1.128205  1.238248
1.179487  1.239171
1.230769  1.240389
1.282051  1.241891
1.333333  1.243663
1.384615  1.245690
1.435897  1.247953
1.487179  1.250434
1.538462  1.253110
1.589744  1.255959
1.641026  1.258957
1.692308  1.262080
1.743590  1.265303
1.794872  1.268601
1.846154  1.271949
1.897436  1.275323
1.948718  1.278698
2.000000  1.282051
0.000000  1.333333
0.051282  1.330306
0.102564  1.327263
0.153846  1.324223
0.205128  1.321208
0.256410  1.318241
0.307692  1.315343
0.358974  1.312537
0.410256  1.309844
0.461538  1.307286
0.512821  1.304885
0.564103  1.302661
0.615385  1.300632
0.666667  1.298815
0.717949  1.297227
0.769231  1.295881
0.820513  1.294790
0.871795  1.293963
0.923077  1.293407
0.974359  1.293128
1.025641  1.293128
1.076923  1.293406
1.128205  1.293961
1.179487  1.294788
1.230769  1.295879
1.282051  1.297224
1.333333  1.298811
1.384615  1.300628
1.435897  1.302657
1.487179  1.304881
1.538462  1.307282
1.589744  1.309840
1.641026  1.312533
1.692308  1.315340
1.743590  1.318238
1.794872  1.321206
1.846154  1.324221
1.897436  1.327262
1.948718  1.330306
2.000000  1.333333
0.000000  1.384615
0.051282  1.381894
0.102564  1.379159
0.153846  1.376430
0.205128  1.373725
0.256410  1.371065
0.307692  1.368468
0.358974  1.365955
0.410256  1.363545
0.461538  1.361257
0.512821  1.359110
0.564103  1.357122
0.615385  1.355309
0.666667  1.353686
0.717949  1.352268
0.769231  1.351067
0.820513  1.350093
0.871795  1.349355
0.923077  1.348859
0.974359  1.348610
1.025641  1.348610
1.076923  1.348858
1.128205  1.349354
1.179487  1.350091
1.230769  1.351065
1.282051  1.352266
1.333333  1.353683
1.384615  1.355305
1.435897  1.357118
1.487179  1.359107
1.538462  1.361254
1.589744  1.363541
1.641026  1.365952
1.692308  1.368465
1.743590  1.371062
1.794872  1.373723
1.846154  1.376429
1.897436  1.379158
1.948718  1.381893
2.000000  1.384615
0.000000  1.435897
0.051282  1.433463
0.102564  1.431018
0.153846  1.428580
0.205128  1.426165
0.256410  1.423790
0.307692  1.421474
0.358974  1.419234
0.410256  1.417087
0.461538  1.415050
0.512821  1.413139
0.564103  1.411369
0.615385  1.409756
0.666667  1.408314
0.717949  1.407053
0.769231  1.405985
0.820513  1.405120
0.871795  1.404464
0.923077  1.404023
0.974359  1.403802
1.025641  1.403802
1.076923  1.404022
1.128205  1.404463
1.179487  1.405118
1.230769  1.405983
1.282051  1.407051
1.333333  1.408311
1.384615  1.409754
1.435897  1.411366
1.487179  1.413136
1.538462  1.415047
1.589744  1.417084
1.641026  1.419232
1.692308  1.421472
1.743590  1.423788
1.794872  1.426163
1.846154  1.428578
1.897436  1.431017
1.948718  1.433462
2.000000  1.435897
0.000000  1.487179
0.051282  1.485015
0.102564  1.482843
0.153846  1.480678
0.205128  1.478535
0.256410  1.476429
0.307692  1.474376
0.358974  1.472391
0.410256  1.470489
0.461538  1.468685
0.512821  1.466994
0.564103  1.465428
0.615385  1.464002
0.666667  1.462726
0.717949  1.461612
0.769231  1.460668
0.820513  1.459903
0.871795  1.459324
0.923077  1.458934
0.974359  1.458739
1.025641  1.458738
1.076923  1.458934
1.128205  1.459323
1.179487  1.459902
1.230769  1.460666
1.282051  1.461610
1.333333  1.462724
1.384615  1.464000
1.435897  1.465426
1.487179  1.466991
1.538462  1.468683
1.589744  1.470486
1.641026  1.472388
1.692308  1.474374
1.743590  1.476427
1.794872  1.478533
1.846154  1.480677
1.897436  1.482842
1.948718  1.485015
2.000000  1.487179
0.000000  1.538462
0.051282  1.536553
0.102564  1.534638
0.153846  1.532731
0.205128  1.530844
0.256410  1.528991
0.307692  1.527184
0.358974  1.525439
0.410256  1.523767
0.461538  1.522182
0.512821  1.520697
0.564103  1.519322
0.615385  1.518070
0.666667  1.516950
0.717949  1.515972
0.769231  1.515144
0.820513  1.514473
0.871795  1.513965
0.923077  1.513624
0.974359  1.513452
1.025641  1.513452
1.076923  1.513623
1.128205  1.513964
1.179487  1.514472
1.230769  1.515143
1.282051  1.515971
1.333333  1.516948
1.384615  1.518068
1.435897  1.519320
1.487179  1.520695
1.538462  1.522180
1.589744  1.523765
1.641026  1.525437
1.692308  1.527183
1.743590  1.528989
1.794872  1.530843
1.846154  1.532730
1.897436  1.534638
1.948718  1.536553
2.000000  1.538462
0.000000  1.589744
0.051282  1.588078
0.102564  1.586408
0.153846  1.584745
0.205128  1.583100
0.256410  1.581485
0.307692  1.579912
0.358974  1.578392
0.410256  1.576938
0.461538  1.575559
0.512821  1.574267
0.564103  1.573072
0.615385  1.571983
0.666667  1.571010
0.717949  1.570160
0.769231  1.569441
0.820513  1.568858
0.871795  1.568417
0.923077  1.568120
0.974359  1.567971
1.025641  1.567971
1.076923  1.568120
1.128205  1.568416
1.179487  1.568857
1.230769  1.569440
1.282051  1.570159
1.333333  1.571009
1.384615  1.571982
1.435897  1.573070
1.487179  1.574265
1.538462  1.575557
1.589744  1.576936
1.641026  1.578391
1.692308  1.579911
1.743590  1.581484
1.794872  1.583099
1.846154  1.584744
1.897436  1.586407
1.948718  1.588078
2.000000  1.589744
0.000000  1.641026
0.051282  1.639592
0.102564  1.638154
0.153846  1.636724
0.205128  1.635309
0.256410  1.633921
0.307692  1.632570
0.358974  1.631264
0.410256  1.630015
0.461538  1.628831
0.512821  1.627722
0.564103  1.626697
0.615385  1.625763
0.666667  1.624928
0.717949  1.624200
0.769231  1.623583
0.820513  1.623083
0.871795  1.622705
0.923077  1.622451
0.974359  1.622323
1.025641  1.622323
1.076923  1.622450
1.128205  1.622704
1.179487  1.623082
1.230769  1.623582
1.282051  1.624199
1.333333  1.624927
1.384615  1.625762
1.435897  1.626695
1.487179  1.627721
1.538462  1.628830
1.589744  1.630014
1.641026  1.631263
1.692308  1.632569
1.743590  1.633920
1.794872  1.635309
1.846154  1.636723
1.897436  1.638154
1.948718  1.639591
2.000000  1.641026
0.000000  1.692308
0.051282  1.691096
0.102564  1.689882
0.153846  1.688673
0.205128  1.687479
0.256410  1.686308
0.307692  1.685167
0.358974  1.684066
0.410256  1.683013
0.461538  1.682015
0.512821  1.681080
0.564103  1.680216
0.615385  1.679429
0.666667  1.678726
0.717949  1.678112
0.769231  1.677592
0.820513  1.677172
0.871795  1.676853
0.923077  1.676639
0.974359  1.676531
1.025641  1.676531
1.076923  1.676639
1.128205  1.676852
1.179487  1.677171
1.230769  1.677592
1.282051  1.678111
1.333333  1.678725
1.384615  1.679428
1.435897  1.680215
1.487179  1.681079
1.538462  1.682014
1.589744  1.683012
1.641026  1.684065
1.692308  1.685166
1.743590  1.686307
1.794872  1.687479
1.846154  1.688673
1.897436  1.689881
1.948718  1.691096
2.000000  1.692308
0.000000  1.743590
0.051282  1.742592
0.102564  1.741593
0.153846  1.740598
0.205128  1.739616
0.256410  1.738652
0.307692  1.737714
0.358974  1.736809
0.410256  1.735943
0.461538  1.735123
0.512821  1.734355
0.564103  1.733645
0.615385  1.732999
0.666667  1.732422
0.717949  1.731918
0.769231  1.731491
0.820513  1.731146
0.871795  1.730884
0.923077  1.730708
0.974359  1.730620
1.025641  1.730620
1.076923  1.730708
1.128205  1.730884
1.179487  1.731145
1.230769  1.731491
1.282051  1.731917
1.333333  1.732421
1.384615  1.732998
1.435897  1.733644
1.487179  1.734354
1.538462  1.735122
1.589744  1.735942
1.641026  1.736808
1.692308  1.737714
1.743590  1.738652
1.794872  1.739615
1.846154  1.740598
1.897436  1.741592
1.948718  1.742592
2.000000  1.743590
0.000000  1.794872
0.051282  1.794081
0.102564  1.793290
0.153846  1.792503
0.205128  1.791725
0.256410  1.790962
0.307692  1.790220
0.358974  1.789504
0.410256  1.788819
0.461538  1.788171
0.512821  1.787563
0.564103  1.787002
0.615385  1.786491
0.666667  1.786035
0.717949  1.785636
0.769231  1.785299
0.820513  1.785026
0.871795  1.784819
0.923077  1.784681
0.974359  1.784611
1.025641  1.784611
1.076923  1.784680
1.128205  1.784819
1.179487  1.785026
1.230769  1.785299
1.282051  1.785636
1.333333  1.786034
1.384615  1.786490
1.435897  1.787001
1.487179  1.787563
1.538462  1.788170
1.589744  1.788819
1.641026  1.789504
1.692308  1.790220
1.743590  1.790962
1.794872  1.791725
1.846154  1.792502
1.897436  1.793290
1.948718  1.794081
2.000000  1.794872
0.000000  1.846154
0.051282  1.845566
0.102564  1.844977
0.153846  1.844391
0.205128  1.843812
0.256410  1.843245
0.307692  1.842693
0.358974  1.842161
0.410256  1.841652
0.461538  1.841170
0.512821  1.840718
0.564103  1.840301
0.615385  1.839921
0.666667  1.839582
0.717949  1.839286
0.769231  1.839036
0.820513  1.838833
0.871795  1.838680
0.923077  1.838576
0.974359  1.838525
1.025641  1.838525
1.076923  1.838576
1.128205  1.838679
1.179487  1.838833
1.230769  1.839036
1.282051  1.839286
1.333333  1.839582
1.384615  1.839921
1.435897  1.840301
1.487179  1.840718
1.538462  1.841169
1.589744  1.841651
1.641026  1.842160
1.692308  1.842693
1.743590  1.843245
1.794872  1.843812
1.846154  1.844391
1.897436  1.844976
1.948718  1.845566
2.000000  1.846154
0.000000  1.897436
0.051282  1.897046
0.102564  1.896655
0.153846  1.896267
0.205128  1.895884
0.256410  1.895508
0.307692  1.895142
0.358974  1.894789